# OOMMF OVF 2.0
#
# Segment count: 000001
#
# Begin: Segment
# Begin: Header
#
# Title: SPIRIT Version 2.1.1 (7ed3962edede7)
#
# Desc: -
#
# valuedim: 3   ## field dimensionality
# valueunits: none none none
# valuelabels: spin_x spin_y spin_z
#
## Fundamental mesh measurement unit. Treated as a label:
# meshunit: nm
#
# xmin: 0
# ymin: 0
# zmin: 0
# xmax: 9.9
# ymax: 9.9
# zmax: 0
#
# meshtype: rectangular
# xbase: 0
# ybase: 0
# zbase: 0
# xstepsize: 0.1
# ystepsize: 0.1
# zstepsize: 0.1
# xnodes: 100
# ynodes: 100
# znodes: 1
#
# End: Header
#
# Begin: Data Text
        0.000000359655       -0.000000791885        1.000000000000
        0.000000397516       -0.000001027075        0.999999999999
        0.000000429291       -0.000001260273        0.999999999999
        0.000000475773       -0.000001508385        0.999999999999
        0.000000528860       -0.000001784954        0.999999999998
        0.000000606395       -0.000002097063        0.999999999998
        0.000000698512       -0.000002450051        0.999999999997
        0.000000810302       -0.000002840921        0.999999999996
        0.000000939125       -0.000003239958        0.999999999994
        0.000001087102       -0.000003661697        0.999999999993
        0.000001269468       -0.000004091964        0.999999999991
        0.000001481781       -0.000004566938        0.999999999988
        0.000001739771       -0.000005093857        0.999999999986
        0.000002021235       -0.000005685171        0.999999999982
        0.000002339437       -0.000006325411        0.999999999977
        0.000002680056       -0.000006995442        0.999999999972
        0.000003068099       -0.000007690953        0.999999999966
        0.000003507810       -0.000008412970        0.999999999958
        0.000004015057       -0.000009176594        0.999999999950
        0.000004580679       -0.000009997680        0.999999999940
        0.000005199350       -0.000010839018        0.999999999928
        0.000005861278       -0.000011701324        0.999999999914
        0.000006571847       -0.000012524253        0.999999999900
        0.000007344547       -0.000013322350        0.999999999884
        0.000008189902       -0.000014075917        0.999999999867
        0.000009113792       -0.000014799406        0.999999999849
        0.000010102160       -0.000015468467        0.999999999829
        0.000011152642       -0.000016069572        0.999999999809
        0.000012247464       -0.000016567640        0.999999999788
        0.000013399894       -0.000016967263        0.999999999766
        0.000014596931       -0.000017251109        0.999999999745
        0.000015845677       -0.000017441016        0.999999999722
        0.000017120178       -0.000017487850        0.999999999701
        0.000018410407       -0.000017407127        0.999999999679
        0.000019694428       -0.000017128993        0.999999999659
        0.000020959974       -0.000016695638        0.999999999641
        0.000022195364       -0.000016062552        0.999999999625
        0.000023386696       -0.000015279669        0.999999999610
        0.000024516363       -0.000014290391        0.999999999597
        0.000025570353       -0.000013132734        0.999999999587
        0.000026529165       -0.000011751604        0.999999999579
        0.000027382425       -0.000010215102        0.999999999573
        0.000028112790       -0.000008504713        0.999999999569
        0.000028710778       -0.000006704852        0.999999999565
        0.000029164049       -0.000004790929        0.999999999563
        0.000029463067       -0.000002834326        0.999999999562
        0.000029607822       -0.000000809801        0.999999999561
        0.000029591002        0.000001207478        0.999999999561
        0.000029417222        0.000003224688        0.999999999562
        0.000029086804        0.000005170572        0.999999999564
        0.000028604023        0.000007068155        0.999999999566
        0.000027980494        0.000008847934        0.999999999569
        0.000027222803        0.000010532537        0.999999999574
        0.000026350305        0.000012034491        0.999999999580
        0.000025369208        0.000013379358        0.999999999589
        0.000024300923        0.000014495797        0.999999999600
        0.000023156593        0.000015450835        0.999999999613
        0.000021956198        0.000016197380        0.999999999628
        0.000020713125        0.000016797377        0.999999999644
        0.000019444138        0.000017195546        0.999999999663
        0.000018155941        0.000017438026        0.999999999683
        0.000016869820        0.000017487840        0.999999999705
        0.000015595739        0.000017414389        0.999999999727
        0.000014359961        0.000017202291        0.999999999749
        0.000013167773        0.000016898460        0.999999999771
        0.000012029935        0.000016476998        0.999999999792
        0.000010941680        0.000015959588        0.999999999813
        0.000009903361        0.000015341411        0.999999999833
        0.000008927079        0.000014660786        0.999999999853
        0.000008017285        0.000013931039        0.999999999871
        0.000007187863        0.000013168019        0.999999999887
        0.000006427512        0.000012365981        0.999999999903
        0.000005728049        0.000011533141        0.999999999917
        0.000005074315        0.000010671781        0.999999999930
        0.000004464991        0.000009834461        0.999999999942
        0.000003910918        0.000009020565        0.999999999952
        0.000003416005        0.000008270973        0.999999999960
        0.000002988338        0.000007549279        0.999999999967
        0.000002610076        0.000006865726        0.999999999973
        0.000002275053        0.000006193027        0.999999999978
        0.000001963317        0.000005567840        0.999999999983
        0.000001687024        0.000004983196        0.999999999986
        0.000001436172        0.000004470763        0.999999999989
        0.000001231997        0.000004005201        0.999999999991
        0.000001054957        0.000003577370        0.999999999993
        0.000000913109        0.000003161291        0.999999999995
        0.000000786599        0.000002761925        0.999999999996
        0.000000679075        0.000002378010        0.999999999997
        0.000000589893        0.000002032334        0.999999999998
        0.000000516495        0.000001727858        0.999999999998
        0.000000466683        0.000001458439        0.999999999999
        0.000000421520        0.000001212887        0.999999999999
        0.000000391369        0.000000982122        0.999999999999
        0.000000352431        0.000000746079        1.000000000000
        0.000000324252        0.000000524997        1.000000000000
        0.000000295113        0.000000298956        1.000000000000
        0.000000282185        0.000000086751        1.000000000000
        0.000000283853       -0.000000128472        1.000000000000
        0.000000299651       -0.000000342433        1.000000000000
        0.000000329900       -0.000000568413        1.000000000000
        0.000000617598       -0.000000839092        0.999999999999
        0.000000672051       -0.000001069972        0.999999999999
        0.000000740821       -0.000001315850        0.999999999999
        0.000000820726       -0.000001582034        0.999999999998
        0.000000926231       -0.000001878563        0.999999999998
        0.000001059636       -0.000002217110        0.999999999997
        0.000001225000       -0.000002594980        0.999999999996
        0.000001419995       -0.000002998011        0.999999999994
        0.000001644937       -0.000003433210        0.999999999993
        0.000001912301       -0.000003879840        0.999999999991
        0.000002226328       -0.000004362975        0.999999999988
        0.000002607235       -0.000004885004        0.999999999985
        0.000003047554       -0.000005464972        0.999999999980
        0.000003551275       -0.000006099996        0.999999999975
        0.000004105276       -0.000006786189        0.999999999969
        0.000004721028       -0.000007511708        0.999999999961
        0.000005408352       -0.000008270362        0.999999999951
        0.000006193811       -0.000009068770        0.999999999940
        0.000007083575       -0.000009913514        0.999999999926
        0.000008079563       -0.000010795069        0.999999999909
        0.000009165241       -0.000011716367        0.999999999889
        0.000010335884       -0.000012632509        0.999999999867
        0.000011597341       -0.000013548119        0.999999999841
        0.000012971071       -0.000014428772        0.999999999812
        0.000014474138       -0.000015288343        0.999999999778
        0.000016111171       -0.000016098957        0.999999999741
        0.000017870489       -0.000016864301        0.999999999698
        0.000019733245       -0.000017536552        0.999999999652
        0.000021691196       -0.000018124898        0.999999999600
        0.000023740365       -0.000018585667        0.999999999545
        0.000025880023       -0.000018947870        0.999999999486
        0.000028099216       -0.000019163634        0.999999999422
        0.000030371147       -0.000019256919        0.999999999353
        0.000032668816       -0.000019158194        0.999999999283
        0.000034957043       -0.000018892996        0.999999999211
        0.000037218197       -0.000018411991        0.999999999138
        0.000039423433       -0.000017746533        0.999999999065
        0.000041552106       -0.000016869663        0.999999998994
        0.000043573542       -0.000015797274        0.999999998926
        0.000045456779       -0.000014500270        0.999999998862
        0.000047175265       -0.000013001161        0.999999998803
        0.000048700528       -0.000011295421        0.999999998750
        0.000050009977       -0.000009431542        0.999999998705
        0.000051080816       -0.000007422254        0.999999998668
        0.000051891045       -0.000005320604        0.999999998640
        0.000052431786       -0.000003131191        0.999999998621
        0.000052686427       -0.000000904167        0.999999998612
        0.000052660578        0.000001344094        0.999999998613
        0.000052346201        0.000003565275        0.999999998624
        0.000051754204        0.000005740624        0.999999998644
        0.000050889755        0.000007824916        0.999999998675
        0.000049771420        0.000009810409        0.999999998713
        0.000048417264        0.000011642704        0.999999998760
        0.000046852469        0.000013314092        0.999999998814
        0.000045098903        0.000014768988        0.999999998874
        0.000043187306        0.000016027550        0.999999998939
        0.000041140722        0.000017054961        0.999999999008
        0.000038996888        0.000017895153        0.999999999080
        0.000036776853        0.000018520331        0.999999999152
        0.000034510142        0.000018961864        0.999999999225
        0.000032217200        0.000019190729        0.999999999297
        0.000029921967        0.000019252300        0.999999999367
        0.000027659034        0.000019130837        0.999999999434
        0.000025452195        0.000018887526        0.999999999498
        0.000023331855        0.000018502938        0.999999999557
        0.000021298736        0.000018019284        0.999999999611
        0.000019360498        0.000017410637        0.999999999661
        0.000017516154        0.000016720440        0.999999999707
        0.000015779674        0.000015943458        0.999999999748
        0.000014168408        0.000015121776        0.999999999785
        0.000012691647        0.000014259095        0.999999999818
        0.000011341328        0.000013369081        0.999999999846
        0.000010099792        0.000012453556        0.999999999871
        0.000008944765        0.000011534645        0.999999999893
        0.000007877129        0.000010617577        0.999999999913
        0.000006899801        0.000009746582        0.999999999929
        0.000006031721        0.000008905227        0.999999999942
        0.000005266341        0.000008122671        0.999999999953
        0.000004594957        0.000007362095        0.999999999962
        0.000003992059        0.000006652466        0.999999999970
        0.000003448472        0.000005967360        0.999999999976
        0.000002955552        0.000005349060        0.999999999981
        0.000002528236        0.000004777322        0.999999999985
        0.000002159101        0.000004264970        0.999999999989
        0.000001856973        0.000003791277        0.999999999991
        0.000001597490        0.000003344886        0.999999999993
        0.000001379475        0.000002918089        0.999999999995
        0.000001190409        0.000002517162        0.999999999996
        0.000001030478        0.000002148008        0.999999999997
        0.000000903936        0.000001817244        0.999999999998
        0.000000802860        0.000001526980        0.999999999999
        0.000000726925        0.000001267506        0.999999999999
        0.000000660306        0.000001022403        0.999999999999
        0.000000606728        0.000000794669        0.999999999999
        0.000000553263        0.000000556704        1.000000000000
        0.000000519133        0.000000329986        1.000000000000
        0.000000496754        0.000000091825        1.000000000000
        0.000000499416       -0.000000137928        1.000000000000
        0.000000525096       -0.000000375096        1.000000000000
        0.000000562211       -0.000000603153        1.000000000000
        0.000000860944       -0.000000899083        0.999999999999
        0.000000946165       -0.000001146667        0.999999999999
        0.000001047911       -0.000001408221        0.999999999998
        0.000001176561       -0.000001699756        0.999999999998
        0.000001339564       -0.000002031184        0.999999999997
        0.000001539243       -0.000002404071        0.999999999996
        0.000001781745       -0.000002812363        0.999999999994
        0.000002065268       -0.000003258099        0.999999999993
        0.000002400104       -0.000003728002        0.999999999990
        0.000002789438       -0.000004237647        0.999999999987
        0.000003256253       -0.000004785881        0.999999999983
        0.000003804907       -0.000005386696        0.999999999978
        0.000004445880       -0.000006039495        0.999999999972
        0.000005175832       -0.000006750032        0.999999999964
        0.000005992411       -0.000007508364        0.999999999954
        0.000006904279       -0.000008321452        0.999999999942
        0.000007928131       -0.000009183410        0.999999999926
        0.000009085789       -0.000010099283        0.999999999908
        0.000010391426       -0.000011060431        0.999999999885
        0.000011844383       -0.000012063573        0.999999999857
        0.000013435902       -0.000013087619        0.999999999824
        0.000015161520       -0.000014131129        0.999999999785
        0.000017034970       -0.000015169478        0.999999999740
        0.000019074197       -0.000016208202        0.999999999687
        0.000021307782       -0.000017211444        0.999999999625
        0.000023731016       -0.000018184984        0.999999999553
        0.000026340569       -0.000019074205        0.999999999471
        0.000029107420       -0.000019895994        0.999999999378
        0.000032025621       -0.000020590506        0.999999999275
        0.000035080013       -0.000021188868        0.999999999160
        0.000038272702       -0.000021630516        0.999999999034
        0.000041574869       -0.000021939527        0.999999998895
        0.000044962984       -0.000022053648        0.999999998746
        0.000048384161       -0.000021987135        0.999999998588
        0.000051806869       -0.000021694236        0.999999998423
        0.000055184659       -0.000021180685        0.999999998253
        0.000058490123       -0.000020432820        0.999999998081
        0.000061678676       -0.000019439038        0.999999997909
        0.000064709977       -0.000018206214        0.999999997741
        0.000067537638       -0.000016720075        0.999999997580
        0.000070117237       -0.000015000582        0.999999997429
        0.000072409659       -0.000013050992        0.999999997293
        0.000074377798       -0.000010908297        0.999999997174
        0.000075985622       -0.000008596415        0.999999997076
        0.000077208646       -0.000006157384        0.999999997000
        0.000078017500       -0.000003626346        0.999999996950
        0.000078407672       -0.000001045503        0.999999996926
        0.000078362802        0.000001555212        0.999999996928
        0.000077893758        0.000004127656        0.999999996958
        0.000076998559        0.000006645393        0.999999997014
        0.000075701249        0.000009061103        0.999999997094
        0.000074017292        0.000011343125        0.999999997196
        0.000071985501        0.000013450893        0.999999997319
        0.000069630807        0.000015355129        0.999999997458
        0.000067002464        0.000017032939        0.999999997610
        0.000064127527        0.000018465705        0.999999997773
        0.000061065990        0.000019655211        0.999999997942
        0.000057846629        0.000020597214        0.999999998115
        0.000054528651        0.000021300495        0.999999998286
        0.000051135049        0.000021768901        0.999999998456
        0.000047713119        0.000022016924        0.999999998619
        0.000044292294        0.000022045757        0.999999998776
        0.000040919652        0.000021892704        0.999999998923
        0.000037635718        0.000021554203        0.999999999059
        0.000034469621        0.000021082971        0.999999999184
        0.000031441602        0.000020461335        0.999999999296
        0.000028552136        0.000019744201        0.999999999397
        0.000025815201        0.000018904685        0.999999999488
        0.000023240006        0.000017998950        0.999999999568
        0.000020854330        0.000017017510        0.999999999638
        0.000018658656        0.000016004845        0.999999999698
        0.000016655604        0.000014966797        0.999999999749
        0.000014810582        0.000013925315        0.999999999793
        0.000013114231        0.000012884759        0.999999999831
        0.000011546677        0.000011865741        0.999999999863
        0.000010124202        0.000010865585        0.999999999890
        0.000008846600        0.000009919270        0.999999999912
        0.000007717388        0.000009005647        0.999999999930
        0.000006717008        0.000008162397        0.999999999944
        0.000005825196        0.000007351193        0.999999999956
        0.000005025358        0.000006609909        0.999999999966
        0.000004313371        0.000005904606        0.999999999973
        0.000003689580        0.000005265585        0.999999999979
        0.000003158711        0.000004674648        0.999999999984
        0.000002707198        0.000004133458        0.999999999988
        0.000002330496        0.000003634815        0.999999999991
        0.000002005945        0.000003166626        0.999999999993
        0.000001730584        0.000002730790        0.999999999995
        0.000001497366        0.000002326982        0.999999999996
        0.000001304072        0.000001962822        0.999999999997
        0.000001149304        0.000001640398        0.999999999998
        0.000001025926        0.000001353483        0.999999999999
        0.000000927955        0.000001099089        0.999999999999
        0.000000847539        0.000000850212        0.999999999999
        0.000000788814        0.000000612487        1.000000000000
        0.000000742740        0.000000356982        1.000000000000
        0.000000724175        0.000000107272        1.000000000000
        0.000000725867       -0.000000157800        1.000000000000
        0.000000749707       -0.000000407092        1.000000000000
        0.000000799844       -0.000000659625        0.999999999999
        0.000001111648       -0.000000984239        0.999999999999
        0.000001220160       -0.000001254281        0.999999999998
        0.000001365084       -0.000001546284        0.999999999998
        0.000001551052       -0.000001873877        0.999999999997
        0.000001778077       -0.000002246807        0.999999999996
        0.000002055909       -0.000002661641        0.999999999994
        0.000002381806       -0.000003120216        0.999999999992
        0.000002769845       -0.000003614436        0.999999999990
        0.000003220455       -0.000004152724        0.999999999986
        0.000003756259       -0.000004737826        0.999999999982
        0.000004382659       -0.000005380533        0.999999999976
        0.000005119293       -0.000006078459        0.999999999968
        0.000005973221       -0.000006837134        0.999999999959
        0.000006946692       -0.000007645728        0.999999999947
        0.000008051816       -0.000008518968        0.999999999931
        0.000009290567       -0.000009452182        0.999999999912
        0.000010689018       -0.000010461766        0.999999999888
        0.000012259134       -0.000011533726        0.999999999858
        0.000014023413       -0.000012664670        0.999999999821
        0.000015981258       -0.000013831003        0.999999999777
        0.000018137474       -0.000015028579        0.999999999723
        0.000020494761       -0.000016244651        0.999999999658
        0.000023062590       -0.000017488124        0.999999999581
        0.000025873679       -0.000018726832        0.999999999490
        0.000028931789       -0.000019961845        0.999999999382
        0.000032260716       -0.000021131511        0.999999999256
        0.000035830718       -0.000022239336        0.999999999111
        0.000039640650       -0.000023232540        0.999999998944
        0.000043656757       -0.000024128193        0.999999998756
        0.000047880103       -0.000024875342        0.999999998544
        0.000052281506       -0.000025476604        0.999999998309
        0.000056845449       -0.000025877405        0.999999998049
        0.000061517194       -0.000026069342        0.999999997768
        0.000066254475       -0.000026019247        0.999999997467
        0.000070992808       -0.000025717564        0.999999997149
        0.000075688177       -0.000025149017        0.999999996819
        0.000080281199       -0.000024287577        0.999999996483
        0.000084721991       -0.000023137286        0.999999996143
        0.000088944431       -0.000021674427        0.999999995810
        0.000092887838       -0.000019924824        0.999999995487
        0.000096488474       -0.000017885077        0.999999995185
        0.000099689992       -0.000015584378        0.999999994910
        0.000102437487       -0.000013039285        0.999999994668
        0.000104687523       -0.000010285778        0.999999994467
        0.000106393486       -0.000007371097        0.999999994313
        0.000107531220       -0.000004340697        0.999999994209
        0.000108072166       -0.000001249764        0.999999994159
        0.000108015143        0.000001859083        0.999999994165
        0.000107352336        0.000004942661        0.999999994226
        0.000106104612        0.000007953142        0.999999994339
        0.000104285524        0.000010841240        0.999999994503
        0.000101937943        0.000013556574        0.999999994712
        0.000099093649        0.000016055332        0.999999994961
        0.000095813559        0.000018308402        0.999999995242
        0.000092136478        0.000020289334        0.999999995550
        0.000088138109        0.000021987133        0.999999995874
        0.000083862583        0.000023385538        0.999999996210
        0.000079392712        0.000024480809        0.999999996549
        0.000074769708        0.000025282457        0.999999996885
        0.000070067403        0.000025797318        0.999999997213
        0.000065319839        0.000026048911        0.999999997527
        0.000060595711        0.000026049632        0.999999997825
        0.000055937081        0.000025814868        0.999999998102
        0.000051405557        0.000025373420        0.999999998357
        0.000047034633        0.000024738770        0.999999998588
        0.000042852914        0.000023964143        0.999999998795
        0.000038875101        0.000023043995        0.999999998979
        0.000035110801        0.000022030743        0.999999999141
        0.000031587491        0.000020906267        0.999999999283
        0.000028309869        0.000019722598        0.999999999405
        0.000025303250        0.000018484306        0.999999999509
        0.000022539081        0.000017242549        0.999999999597
        0.000020017406        0.000016004344        0.999999999672
        0.000017696758        0.000014792063        0.999999999734
        0.000015583034        0.000013598069        0.999999999786
        0.000013660345        0.000012441825        0.999999999829
        0.000011936989        0.000011314687        0.999999999865
        0.000010400830        0.000010262284        0.999999999893
        0.000009035969        0.000009259244        0.999999999916
        0.000007824271        0.000008346233        0.999999999935
        0.000006745818        0.000007479765        0.999999999949
        0.000005796110        0.000006685672        0.999999999961
        0.000004965552        0.000005936009        0.999999999970
        0.000004251564        0.000005249741        0.999999999977
        0.000003644197        0.000004619546        0.999999999983
        0.000003125764        0.000004042123        0.999999999987
        0.000002689077        0.000003515765        0.999999999990
        0.000002313349        0.000003025985        0.999999999993
        0.000001997221        0.000002577363        0.999999999995
        0.000001730328        0.000002170334        0.999999999996
        0.000001510760        0.000001805197        0.999999999997
        0.000001333768        0.000001488052        0.999999999998
        0.000001196368        0.000001198352        0.999999999999
        0.000001093301        0.000000933631        0.999999999999
        0.000001019946        0.000000664235        0.999999999999
        0.000000975654        0.000000398096        0.999999999999
        0.000000953246        0.000000109917        1.000000000000
        0.000000955931       -0.000000165604        1.000000000000
        0.000000982602       -0.000000451873        0.999999999999
        0.000001031494       -0.000000717483        0.999999999999
        0.000001373804       -0.000001089528        0.999999999998
        0.000001513875       -0.000001400326        0.999999999998
        0.000001707141       -0.000001736306        0.999999999997
        0.000001951624       -0.000002112932        0.999999999996
        0.000002255812       -0.000002533594        0.999999999994
        0.000002614937       -0.000003005335        0.999999999992
        0.000003044464       -0.000003523376        0.999999999989
        0.000003543475       -0.000004090622        0.999999999985
        0.000004136727       -0.000004714136        0.999999999980
        0.000004827952       -0.000005402387        0.999999999974
        0.000005640100       -0.000006155953        0.999999999965
        0.000006582412       -0.000006983641        0.999999999954
        0.000007668536       -0.000007867771        0.999999999940
        0.000008917145       -0.000008822061        0.999999999921
        0.000010332588       -0.000009842073        0.999999999898
        0.000011943316       -0.000010950234        0.999999999869
        0.000013751998       -0.000012143983        0.999999999832
        0.000015792145       -0.000013429170        0.999999999785
        0.000018067960       -0.000014774049        0.999999999728
        0.000020605590       -0.000016174280        0.999999999657
        0.000023411272       -0.000017604632        0.999999999571
        0.000026497536       -0.000019083469        0.999999999467
        0.000029887813       -0.000020586127        0.999999999341
        0.000033585899       -0.000022125444        0.999999999191
        0.000037626275       -0.000023636640        0.999999999013
        0.000041994357       -0.000025104570        0.999999998803
        0.000046705173       -0.000026478488        0.999999998559
        0.000051724560       -0.000027743975        0.999999998277
        0.000057049228       -0.000028882778        0.999999997956
        0.000062643245       -0.000029865721        0.999999997592
        0.000068491322       -0.000030658531        0.999999997184
        0.000074543188       -0.000031212718        0.999999996735
        0.000080757623       -0.000031501906        0.999999996243
        0.000087059280       -0.000031497503        0.999999995714
        0.000093388700       -0.000031186155        0.999999995153
        0.000099665018       -0.000030544316        0.999999994567
        0.000105822951       -0.000029546777        0.999999993964
        0.000111776057       -0.000028174431        0.999999993356
        0.000117448639       -0.000026422015        0.999999992754