# OOMMF OVF 2.0
#
# Segment count: 000001
#
# Begin: Segment
# Begin: Header
#
# Title: SPIRIT Version 2.1.1 (7ed3962edede7)
#
# Desc: -
#
# valuedim: 3   ## field dimensionality
# valueunits: none none none
# valuelabels: spin_x spin_y spin_z
#
## Fundamental mesh measurement unit. Treated as a label:
# meshunit: nm
#
# xmin: 0
# ymin: 0
# zmin: 0
# xmax: 9.9
# ymax: 9.9
# zmax: 0
#
# meshtype: rectangular
# xbase: 0
# ybase: 0
# zbase: 0
# xstepsize: 0.1
# ystepsize: 0.1
# zstepsize: 0.1
# xnodes: 100
# ynodes: 100
# znodes: 1
#
# End: Header
#
# Begin: Data Text
        0.000030915225       -0.000073372453        0.999999996830
        0.000033415720       -0.000094861993        0.999999994942
        0.000036608256       -0.000117127915        0.999999992470
        0.000040538878       -0.000140365699        0.999999989327
        0.000045236360       -0.000164654591        0.999999985421
        0.000050769359       -0.000190167452        0.999999980629
        0.000057191484       -0.000216949984        0.999999974831
        0.000064596241       -0.000245208681        0.999999967850
        0.000073079975       -0.000274940747        0.999999959533
        0.000082745879       -0.000306328842        0.999999949658
        0.000093692301       -0.000339294779        0.999999938050
        0.000106038867       -0.000373931102        0.999999924466
        0.000119872012       -0.000410110409        0.999999908720
        0.000135327661       -0.000447841151        0.999999890562
        0.000152511039       -0.000486952386        0.999999869809
        0.000171555519       -0.000527375672        0.999999846222
        0.000192577324       -0.000568835948        0.999999819670
        0.000215682590       -0.000611173166        0.999999789974
        0.000240978883       -0.000653973100        0.999999757124
        0.000268536815       -0.000696976745        0.999999721056
        0.000298448054       -0.000739641721        0.999999681929
        0.000330757150       -0.000781600790        0.999999639850
        0.000365507609       -0.000822201502        0.999999595194
        0.000402697510       -0.000860954946        0.999999548296
        0.000442299234       -0.000897146943        0.999999499749
        0.000484226050       -0.000930169816        0.999999450154
        0.000528376577       -0.000959288016        0.999999400292
        0.000574569968       -0.000983819333        0.999999350984
        0.000622615600       -0.001003021026        0.999999303149
        0.000672233002       -0.001016212049        0.999999257708
        0.000723128968       -0.001022702389        0.999999215582
        0.000774924469       -0.001021868691        0.999999177638
        0.000827212406       -0.001013151169        0.999999144622
        0.000879537542       -0.000996070382        0.999999117128
        0.000931393828       -0.000970257073        0.999999095553
        0.000982248198       -0.000935492907        0.999999080020
        0.001031554839       -0.000891666105        0.999999070413
        0.001078718695       -0.000838835136        0.999999066360
        0.001123175427       -0.000777193528        0.999999067223
        0.001164350639       -0.000707085576        0.999999072158
        0.001201676698       -0.000629039057        0.999999080141
        0.001234657345       -0.000543753412        0.999999089976
        0.001262810763       -0.000452085010        0.999999100464
        0.001285735111       -0.000355023856        0.999999110421
        0.001303088343       -0.000253682186        0.999999118803
        0.001314612214       -0.000149228600        0.999999124762
        0.001320111905       -0.000042937257        0.999999127730
        0.001319513756        0.000063888178        0.999999127400
        0.001312816569        0.000169920265        0.999999123819
        0.001300136004        0.000273861896        0.999999117323
        0.001281657539        0.000374451914        0.999999108569
        0.001257685545        0.000470540341        0.999999098409
        0.001228541762        0.000561028511        0.999999087966
        0.001194674947        0.000644957173        0.999999078391
        0.001156546319        0.000721493524        0.999999070923
        0.001114685778        0.000789977215        0.999999066705
        0.001069646924        0.000849908450        0.999999066755
        0.001022022300        0.000900986060        0.999999071847
        0.000972359936        0.000943028834        0.999999082606
        0.000921271989        0.000976028049        0.999999099313
        0.000869276070        0.001000099964        0.999999122079
        0.000816926064        0.001015510875        0.999999150684
        0.000764694262        0.001022635203        0.999999184730
        0.000713049224        0.001021989057        0.999999223549
        0.000662373629        0.001014127395        0.999999266403
        0.000613044630        0.000999705978        0.999999312382
        0.000565340950        0.000979398934        0.999999360583
        0.000519538165        0.000953911501        0.999999410066
        0.000475807183        0.000923972525        0.999999459941
        0.000434335643        0.000890269044        0.999999509387
        0.000395197405        0.000853529404        0.999999557653
        0.000358489679        0.000814356070        0.999999604155
        0.000324215938        0.000773453263        0.999999648327
        0.000292386859        0.000731304465        0.999999689852
        0.000262935977        0.000688547285        0.999999728384
        0.000235836865        0.000645541345        0.999999763829
        0.000210970033        0.000602814126        0.999999796053
        0.000188289453        0.000560619341        0.999999825127
        0.000167658007        0.000519349362        0.999999851084
        0.000148996521        0.000479166546        0.999999874100
        0.000132153765        0.000440321003        0.999999894326
        0.000117034846        0.000402881317        0.999999911995
        0.000103495423        0.000367010120        0.999999927296
        0.000091437091        0.000332687952        0.999999940479
        0.000080747491        0.000300044446        0.999999951727
        0.000071324022        0.000268973744        0.999999961283
        0.000063058377        0.000239548112        0.999999969320
        0.000055856427        0.000211578412        0.999999976057
        0.000049612588        0.000185063055        0.999999981645
        0.000044251791        0.000159792487        0.999999986254
        0.000039704981        0.000135724879        0.999999990001
        0.000035926345        0.000112684366        0.999999993006
        0.000032869197        0.000090586835        0.999999995357
        0.000030504085        0.000069236780        0.999999997138
        0.000028792202        0.000048507200        0.999999998409
        0.000027688594        0.000028150920        0.999999999220
        0.000027179394        0.000008064444        0.999999999598
        0.000027233956       -0.000012002014        0.999999999557
        0.000027858191       -0.000032119907        0.999999999096
        0.000029079613       -0.000052542384        0.999999998197
        0.000053692749       -0.000076359731        0.999999995643
        0.000058052252       -0.000098744882        0.999999993440
        0.000063617227       -0.000122004057        0.999999990534
        0.000070450038       -0.000146238544        0.999999986826
        0.000078638276       -0.000171643724        0.999999982177
        0.000088269259       -0.000198295575        0.999999976444
        0.000099476604       -0.000226407858        0.999999969422
        0.000112400300       -0.000256021330        0.999999960910
        0.000127220471       -0.000287350880        0.999999950622
        0.000144099276       -0.000320365541        0.999999938301
        0.000163244911       -0.000355211019        0.999999923588
        0.000184813863       -0.000391784998        0.999999906174
        0.000209022709       -0.000430146724        0.999999885642
        0.000236061410       -0.000470147361        0.999999861618
        0.000266145807       -0.000511766446        0.999999833631
        0.000299503552       -0.000554780630        0.999999801258
        0.000336335634       -0.000599070425        0.999999763996
        0.000376854280       -0.000644289887        0.999999721436
        0.000421220673       -0.000690203054        0.999999673096
        0.000469610802       -0.000736330670        0.999999618641
        0.000522143335       -0.000782318169        0.999999557672
        0.000578931072       -0.000827550154        0.999999490000
        0.000640043109       -0.000871551440        0.999999415371
        0.000705471753       -0.000913591311        0.999999333830
        0.000775181043       -0.000953072637        0.999999245373
        0.000849029235       -0.000989203121        0.999999150313
        0.000926819013       -0.001021284265        0.999999048992
        0.001008274572       -0.001048488294        0.999998942027
        0.001093017128       -0.001070077415        0.999998830123
        0.001180604847       -0.001085233268        0.999998714220
        0.001270473039       -0.001093239187        0.999998595362
        0.001361993171       -0.001093386102        0.999998474740
        0.001454425091       -0.001085039194        0.999998353667
        0.001546961865       -0.001067677566        0.999998233485
        0.001638713572       -0.001040875374        0.999998115596
        0.001728738890       -0.001004363065        0.999998001356
        0.001816035657       -0.000958008201        0.999997892115
        0.001899594284       -0.000901863400        0.999997789090
        0.001978370853       -0.000836088388        0.999997693500
        0.002051347336       -0.000761101313        0.999997606347
        0.002117541512       -0.000677420821        0.999997528556
        0.002176022457       -0.000585836757        0.999997460858
        0.002225965041       -0.000487246328        0.999997403832
        0.002266634763       -0.000382767163        0.999997357925
        0.002297429325       -0.000273550701        0.999997323491
        0.002317870108       -0.000160953413        0.999997300782
        0.002327638741       -0.000046307720        0.999997289973
        0.002326572147        0.000068905547        0.999997291153
        0.002314690975        0.000183265317        0.999997304306
        0.002292183974        0.000295300898        0.999997329341
        0.002259411799        0.000403692462        0.999997366042
        0.002216865072        0.000507101630        0.999997414175
        0.002165188180        0.000604401469        0.999997473326
        0.002105121039        0.000694498669        0.999997543065
        0.002037521390        0.000776529400        0.999997622752
        0.001963324722        0.000849741782        0.999997711645
        0.001883530205        0.000913655358        0.999997808772
        0.001799152558        0.000967881787        0.999997913125
        0.001711243848        0.001012308538        0.999998023436
        0.001620798358        0.001046893159        0.999998138512
        0.001528823475        0.001071822085        0.999998256947
        0.001436235106        0.001087370665        0.999998377426
        0.001343925336        0.001094010784        0.999998498501
        0.001252669835        0.001092262818        0.999998618889
        0.001163206259        0.001082801896        0.999998737245
        0.001076132563        0.001066318143        0.999998852452
        0.000992006918        0.001043568371        0.999998963443
        0.000911239589        0.001015343695        0.999999069359
        0.000834210820        0.000982405102        0.999999169486
        0.000761155058        0.000945562692        0.999999263277
        0.000692285022        0.000905516308        0.999999350391
        0.000627696433        0.000863047231        0.999999430573
        0.000567441228        0.000818746992        0.999999503832
        0.000511490025        0.000773332762        0.999999570167
        0.000459787369        0.000727268885        0.999999629838
        0.000412190903        0.000681160171        0.999999683060
        0.000368601521        0.000635345656        0.999999730234
        0.000328813664        0.000590291576        0.999999771719
        0.000292687538        0.000546230062        0.999999807983
        0.000259982556        0.000503477813        0.999999839460
        0.000230520907        0.000462163903        0.999999866632
        0.000204047737        0.000422483842        0.999999889936
        0.000180379114        0.000384460344        0.999999909827
        0.000159295910        0.000348234980        0.999999926679
        0.000140614033        0.000313738535        0.999999940898
        0.000124150460        0.000281070028        0.999999952793
        0.000109719663        0.000250074205        0.999999962712
        0.000097143520        0.000220775494        0.999999970911
        0.000086258830        0.000192950465        0.999999977665
        0.000076918191        0.000166563635        0.999999983170
        0.000069005590        0.000141391702        0.999999987623
        0.000062424515        0.000117365546        0.999999991164
        0.000057104608        0.000094286601        0.999999993925
        0.000052970969        0.000072046153        0.999999996002
        0.000049967783        0.000050417642        0.999999997481
        0.000048036355        0.000029274983        0.999999998418
        0.000047129517        0.000008355949        0.999999998854
        0.000047228402       -0.000012447176        0.999999998807
        0.000048333528       -0.000033402862        0.999999998274
        0.000050471136       -0.000054618681        0.999999997235
        0.000076989598       -0.000080961792        0.999999993759
        0.000083281197       -0.000104797015        0.999999991041
        0.000091291946       -0.000129520428        0.999999987445
        0.000101130155       -0.000155368252        0.999999982817
        0.000112916604       -0.000182438692        0.999999976983
        0.000126809880       -0.000210972908        0.999999969705
        0.000142987619       -0.000241055613        0.999999960723
        0.000161676391       -0.000272924890        0.999999949686
        0.000183099323       -0.000306613146        0.999999936232
        0.000207544237       -0.000342306268        0.999999919876
        0.000235243111       -0.000379954063        0.999999900148
        0.000266503876       -0.000419671354        0.999999876426
        0.000301592297       -0.000461334989        0.999999848106
        0.000340813346       -0.000504988558        0.999999814416
        0.000384495520       -0.000550438122        0.999999774591
        0.000432946238       -0.000597625591        0.999999727701
        0.000486500618       -0.000646256172        0.999999672835
        0.000545444324       -0.000696133331        0.999999608944
        0.000610064189       -0.000746839384        0.999999535026
        0.000680586666       -0.000798026970        0.999999449977
        0.000757233255       -0.000849139044        0.999999352780
        0.000840157182       -0.000899684284        0.999999242352
        0.000929451880       -0.000948949021        0.999999117807
        0.001025157657       -0.000996314118        0.999998978204
        0.001127177406       -0.001040936482        0.999998822960
        0.001235358867       -0.001082085296        0.999998651489
        0.001349406902       -0.001118833094        0.999998463656
        0.001468917785       -0.001150373215        0.999998259459
        0.001593368374       -0.001175736868        0.999998039408
        0.001722086175       -0.001194100745        0.999997804269
        0.001854273751       -0.001204554064        0.999997555356
        0.001988983802       -0.001206310729        0.999997294375
        0.002125148472       -0.001198636884        0.999997023502
        0.002261556217       -0.001180886744        0.999996745430
        0.002396905464       -0.001152583831        0.999996463191
        0.002529784363       -0.001113359912        0.999996180303
        0.002658721888       -0.001063073098        0.999995900528
        0.002782196591       -0.001001682020        0.999995627998
        0.002898673152       -0.000929451892        0.999995366896
        0.003006621641       -0.000846711999        0.999995121641
        0.003104575670       -0.000754162013        0.999994896412
        0.003191155297       -0.000652574743        0.999994695323
        0.003265107389       -0.000543057380        0.999994522066
        0.003325351804       -0.000426757561        0.999994379941
        0.003370970396       -0.000305116663        0.999994271715
        0.003401258387       -0.000179535210        0.999994199587
        0.003415732256       -0.000051676147        0.999994165034
        0.003414152998        0.000076886759        0.999994168807
        0.003396546232        0.000204420132        0.999994210826
        0.003363203461        0.000329357728        0.999994290177
        0.003314648640        0.000450055688        0.999994405261
        0.003251636187        0.000565134461        0.999994553728
        0.003175112125        0.000673179763        0.999994732732
        0.003086196467        0.000773074051        0.999994938861
        0.002986166876        0.000863752695        0.999995168358
        0.002876426226        0.000944477243        0.999995417057
        0.002758452959        0.001014597799        0.999995680755
        0.002633785764        0.001073825625        0.999995955027
        0.002503953909        0.001121927733        0.999996235739
        0.002370476939        0.001158995108        0.999996518779
        0.002234809811        0.001185187784        0.999996800472
        0.002098351861        0.001200921240        0.999997077350
        0.001962378635        0.001206685557        0.999997346487
        0.001828087172        0.001203164746        0.999997605243
        0.001696506330        0.001191089161        0.999997851584
        0.001568572484        0.001171284573        0.999998083835
        0.001445038310        0.001144635892        0.999998300835
        0.001326568351        0.001112003256        0.999998501831
        0.001213637904        0.001074324274        0.999998686454
        0.001106654421        0.001032423926        0.999998854708
        0.001005857274        0.000987205527        0.999999006838
        0.000911414429        0.000939403755        0.999999143422
        0.000823368812        0.000889839989        0.999999265124
        0.000741693897        0.000839129282        0.999999372876
        0.000666257460        0.000787967671        0.999999467604
        0.000596919093        0.000736830129        0.999999550384
        0.000533426065        0.000686264580        0.999999622249
        0.000475570996        0.000636600355        0.999999684286
        0.000423035859        0.000588238383        0.999999737508
        0.000375553527        0.000541374226        0.999999782937
        0.000332767333        0.000496270803        0.999999821491
        0.000294387588        0.000452996551        0.999999854065
        0.000260069142        0.000411718818        0.999999881426
        0.000229535100        0.000372398837        0.999999904316
        0.000202491451        0.000335145875        0.999999923337
        0.000178665751        0.000299842349        0.999999939087
        0.000157795711        0.000266529466        0.999999952031
        0.000139621265        0.000235010513        0.999999962638
        0.000123906634        0.000205256645        0.999999971258
        0.000110441635        0.000177011089        0.999999978235
        0.000099047740        0.000150203924        0.999999983814
        0.000089579432        0.000124582684        0.999999988227
        0.000081911570        0.000100052440        0.999999991640
        0.000075949064        0.000076379583        0.999999994199
        0.000071593069        0.000053442750        0.999999996009
        0.000068785382        0.000030986029        0.999999997154
        0.000067462491        0.000008866701        0.999999997685
        0.000067606520       -0.000013198833        0.999999997628
        0.000069217810       -0.000035360963        0.999999996979
        0.000072325128       -0.000057902758        0.999999995708
        0.000101003363       -0.000087317842        0.999999991087
        0.000109318105       -0.000113045023        0.999999987635
        0.000119889330       -0.000139842312        0.999999983035
        0.000132868041       -0.000167826291        0.999999977090
        0.000148440366       -0.000197283140        0.999999969522
        0.000166817852       -0.000228334009        0.999999960018
        0.000188257875       -0.000261254868        0.999999948152
        0.000213035372       -0.000296140316        0.999999933458
        0.000241490366       -0.000333209500        0.999999915327
        0.000273936165       -0.000372487905        0.999999893106
        0.000310767163       -0.000414133128        0.999999865959
        0.000352337156       -0.000458083386        0.999999833009
        0.000399049668       -0.000504442891        0.999999793148
        0.000451326455       -0.000553059799        0.999999745215
        0.000509585900       -0.000603948111        0.999999687784
        0.000574285782       -0.000656854471        0.999999619369
        0.000645858616       -0.000711649074        0.999999538211
        0.000724724676       -0.000767957374        0.999999442508
        0.000811271222       -0.000825473793        0.999999330216
        0.000905849526       -0.000883685167        0.999999199268
        0.001008744328       -0.000942098303        0.999999047442
        0.001120198384       -0.001000035112        0.999998872542
        0.001240354311       -0.001056831319        0.999998672313
        0.001369253939       -0.001111631879        0.999998444708
        0.001506830398       -0.001163633018        0.999998187709
        0.001652860214       -0.001211832185        0.999997899756
        0.001806982563       -0.001255312375        0.999997579499
        0.001968670754       -0.001292973070        0.999997226274
        0.002137218546       -0.001323833119        0.999996839876
        0.002311733086       -0.001346776653        0.999996421035
        0.002491141439       -0.001360828650        0.999995971172
        0.002674161156       -0.001364987319        0.999995492826
        0.002859331599       -0.001358376176        0.999994989506
        0.003045021031       -0.001340230811        0.999994465799
        0.003229423773       -0.001309918850        0.999993927449
        0.003410616762       -0.001267010886        0.999993381166
        0.003586580176       -0.001211237617        0.999992834647
        0.003755208782       -0.001142601570        0.999992296405
        0.003914388690       -0.001061255402        0.999991775615
        0.004062015165       -0.000967707040        0.999991281750
        0.004196041652       -0.000862607768        0.999990824529
        0.004314562817       -0.000746975234        0.999990413242
        0.004415850172       -0.000621963682        0.999990056665
        0.004498375733       -0.000489038792        0.999989762676
        0.004560889596       -0.000349737868        0.999989537930
        0.004602401971       -0.000205870624        0.999989387700
        0.004622237297       -0.000059241730        0.999989315649
        0.004620071850        0.000088150722        0.999989323526
        0.004595945856        0.000234394493        0.999989411114
        0.004550243148        0.000377503099        0.999989576335
        0.004483715387        0.000515691786        0.999989815127
        0.004397396114        0.000647178219        0.999990121985
        0.004292599074        0.000770457771        0.999990489949
        0.004170888819        0.000884106938        0.999990910979
        0.004034038066        0.000987009479        0.999991376137
        0.003883977174        0.001078206457        0.999991876063
        0.003722776175        0.001157088715        0.999992401013
        0.003552539082        0.001223203309        0.999992941595
        0.003375385975        0.001276445096        0.999993488708
        0.003193404847        0.001316850803        0.999994034017
        0.003008601943        0.001344735458        0.999994569986
        0.002822876076        0.001360560722        0.999995090111
        0.002638005885        0.001364993193        0.999995588850
        0.002455582869        0.001358819141        0.999996061854
        0.002277044924        0.001342942304        0.999996505780
        0.002103617938        0.001318362748        0.999996918351
        0.001936357971        0.001286084202        0.999997298249
        0.001776100337        0.001247198409        0.999997644979
        0.001623535958        0.001202711384        0.999997958806
        0.001479136383        0.001153690189        0.999998240576
        0.001343257972        0.001101066618        0.999998491654
        0.001216066006        0.001045809004        0.999998713733
        0.001097633167        0.000988727433        0.999998908809
        0.000987867519        0.000930645029        0.999999079008
        0.000886632797        0.000872221328        0.999999226556
        0.000793650088        0.000814111735        0.999999353671
        0.000708647516        0.000756792079        0.999999462542
        0.000631237962        0.000700762081        0.999999555235
        0.000561055372        0.000646309645        0.999999633750
        0.000497649648        0.000593791383        0.999999699878
        0.000440604029        0.000543332682        0.999999755329
        0.000389449970        0.000495159235        0.999999801573
        0.000343783380        0.000449265214        0.999999839987
        0.000303169544        0.000405773987        0.999999871718
        0.000267234800        0.000364591844        0.999999897829
        0.000235594844        0.000325760442        0.999999919188
        0.000207893397        0.000289120856        0.999999936595
        0.000183791884        0.000254644657        0.999999950688
        0.000162976867        0.000222092367        0.999999962057
        0.000145167894        0.000191383529        0.999999971149
        0.000130121306        0.000162220531        0.999999978376
        0.000117628092        0.000134494162        0.999999984037
        0.000107512369        0.000107916148        0.999999988398
        0.000099624256        0.000082365751        0.999999991645
        0.000093861716        0.000057573783        0.999999993938
        0.000090118660        0.000033393645        0.999999995382
        0.000088364611        0.000009531948        0.999999996050
        0.000088553440       -0.000014197740        0.999999995978
        0.000090697003       -0.000038109198        0.999999995161
        0.000094830370       -0.000062384676        0.999999993558
        0.000125924761       -0.000095448800        0.999999987516
        0.000136368682       -0.000123682502        0.999999983053
        0.000149648558       -0.000153051135        0.999999977090
        0.000165968206       -0.000183885464        0.999999969320
        0.000185569254       -0.000216344539        0.999999959380
        0.000208743823       -0.000250759879        0.999999946773
        0.000235807681       -0.000287280739        0.999999930932
        0.000267137611       -0.000326176622        0.999999911123
        0.000303116480       -0.000367545775        0.999999886515
        0.000344205770       -0.000411587487        0.999999856059
        0.000390858999       -0.000458327605        0.999999818583
        0.000443580987       -0.000507920492        0.999999772626
        0.000502901211       -0.000560296094        0.999999716579
        0.000569353629       -0.000615533593        0.999999648477
        0.000643519428       -0.000673445580        0.999999566177
        0.000725977734       -0.000733975308        0.999999467118
        0.000817301089       -0.000796797039        0.999999348566
        0.000918068849       -0.000861678858        0.999999207329
        0.001028789834       -0.000928133770        0.999999040079
        0.001149950363       -0.000995718454        0.999998843079
        0.001281959675       -0.001063768831        0.999998612487
        0.001425131890       -0.001131608609        0.999998344229
        0.001579701241       -0.001198382063        0.999998034210
        0.001745741396       -0.001263204689        0.999997678348
        0.001923195908       -0.001325026465        0.999997272807
        0.002111815563       -0.001382789415        0.999996814059
        0.002311162034       -0.001435284412        0.999996299238
        0.002520576637       -0.001481320348        0.999995726183
        0.002739163042       -0.001519601574        0.999995093886
        0.002965798468       -0.001548889645        0.999994402474
        0.003199069127       -0.001567908865        0.999993653789
        0.003437347099       -0.001575492487        0.999992851209
        0.003678716234       -0.001570526544        0.999992000215
        0.003921033899       -0.001552063538        0.999991108256
        0.004161946380       -0.001519296895        0.999990184921
        0.004398920434       -0.001471658864        0.999989241802
        0.004629262685       -0.001408779059        0.999988292566
        0.004850229554       -0.001330586361        0.999987352327
        0.005058984476       -0.001237268537        0.999986437829