# OOMMF OVF 2.0
#
# Segment count: 000001
#
# Begin: Segment
# Begin: Header
#
# Title: SPIRIT Version 2.1.1 (7ed3962edede7)
#
# Desc: -
#
# valuedim: 3   ## field dimensionality
# valueunits: none none none
# valuelabels: spin_x spin_y spin_z
#
## Fundamental mesh measurement unit. Treated as a label:
# meshunit: nm
#
# xmin: 0
# ymin: 0
# zmin: 0
# xmax: 9.9
# ymax: 9.9
# zmax: 0
#
# meshtype: rectangular
# xbase: 0
# ybase: 0
# zbase: 0
# xstepsize: 0.1
# ystepsize: 0.1
# zstepsize: 0.1
# xnodes: 100
# ynodes: 100
# znodes: 1
#
# End: Header
#
# Begin: Data Text
       -0.006797420068        0.000080284567        0.999976894050
        0.010117338664       -0.000081047754       -0.999948815135
       -0.013408933751        0.000082094874        0.999910092836
        0.016662826933       -0.000083438598       -0.999861161980
       -0.019869589476        0.000085067334        0.999802576601
        0.023019768641       -0.000086984897       -0.999735006232
       -0.026103844320        0.000089195309        0.999659232617
        0.029112261215       -0.000091694984       -0.999576144093
       -0.032035404969        0.000094487407        0.999486730227
        0.034863620531       -0.000097567054       -0.999392074435
       -0.037587212762        0.000100939973        0.999293345944
        0.040196463863       -0.000104604694       -0.999191790074
       -0.042681637225        0.000108550274        0.999088717813
        0.045033011190       -0.000112787637       -0.998985492979
       -0.047240920967        0.000117305921        0.998883517546
        0.049295755742       -0.000122099193       -0.998784217716
       -0.051188020107        0.000127170201        0.998689025886
        0.052908382103       -0.000132502864       -0.998599361880
       -0.054447688638        0.000138095173        0.998516614850
        0.055797059138       -0.000143934959       -0.998442120242
       -0.056947914440        0.000150008713        0.998377139431
        0.057892073007       -0.000156305841       -0.998322835285
       -0.058621807656        0.000162807116        0.998280249810
        0.059129927631       -0.000169494684       -0.998250280706
       -0.059409888201        0.000176349829        0.998233657059
        0.059455849979       -0.000183347407       -0.998230919320
       -0.059262776203        0.000190461216        0.998242398960
        0.058826550318       -0.000197664385       -0.998268199387
       -0.058144048706        0.000204924416        0.998308182680
        0.057213245747       -0.000212208552       -0.998361958149
       -0.056033305573        0.000219480256        0.998428876032
        0.054604673101       -0.000226701049       -0.998508026148
       -0.052929163654        0.000233833782        0.998598242016
        0.051010002889       -0.000240831652       -0.998698113348
       -0.048851937091        0.000247656178        0.998806000637
        0.046461240176       -0.000254259789       -0.998920061123
       -0.043845791318        0.000260600429        0.999038276880
        0.041015041378       -0.000266631518       -0.999158493578
       -0.037980080536        0.000272310280        0.999278459354
        0.034753536396       -0.000277592156       -0.999395874842
       -0.031349602715        0.000282438244        0.999508440504
        0.027783903272       -0.000286806569       -0.999613911698
       -0.024073458706        0.000290664189        0.999710150044
        0.020236523156       -0.000293976161       -0.999795177378
       -0.016292495727        0.000296715890        0.999867224457
        0.012261724947       -0.000298857882       -0.999924777563
       -0.008165375144        0.000300384394        0.999966617652
        0.004025202000       -0.000301280944       -0.999991853456
        0.000136609637        0.000301540257        0.999999945206
       -0.004297690572       -0.000301159073       -0.999990719536
        0.008435659688        0.000300140997        0.999964374146
       -0.012528371454       -0.000298494805       -0.999921472321
        0.016554086306        0.000296235264        0.999862927841
       -0.020491702566       -0.000293381852       -0.999789979972
        0.024320916826        0.000289958981        0.999704160704
       -0.028022412173       -0.000285995598       -0.999607254187
        0.031577998301        0.000281525628        0.999501251008
       -0.034970757520       -0.000276584549       -0.999388297720
        0.038185141236        0.000271212917        0.999270644737
       -0.041207076324       -0.000265450742       -0.999150592452
        0.044024011313        0.000259343548        0.999030439561
       -0.046624988956       -0.000252933385       -0.998912431812
        0.049000637738        0.000246267257        0.998798716886
       -0.051143201933       -0.000239388636       -0.998691301449
        0.053046497497        0.000232341610        0.998592016351
       -0.054705891588       -0.000225171247       -0.998502486088
        0.056118239663        0.000217916080        0.998424106124
       -0.057281828047       -0.000210619755       -0.998358025868
        0.058196296149        0.000203316997        0.998305138611
       -0.058862562485       -0.000196045548       -0.998266076907
        0.059282719369        0.000188839496        0.998241215100
       -0.059459969391       -0.000181726839       -0.998230674251
        0.059398485840        0.000174738599        0.998234335888
       -0.059103367476       -0.000167898921       -0.998251853874
        0.058580488451        0.000161230810        0.998282675587
       -0.057836460757       -0.000154755987       -0.998326058889
        0.056878490193        0.000148493149        0.998381097228
       -0.055714353115       -0.000142453816       -0.998446738972
        0.054352247381        0.000136657816        0.998521814749
       -0.052800784296       -0.000131110233       -0.998605057061
        0.051068856702        0.000125826483        0.998695126674
       -0.049165635261       -0.000120813235       -0.998790631571
        0.047100460687        0.000116073689        0.998890150682
       -0.044882843914       -0.000111619737       -0.998992251153
        0.042522382929        0.000107448401        0.999095508650
       -0.040028773135       -0.000103564933       -0.999198522114
        0.037411719327        0.000099973526        0.999299931583
       -0.034680964192       -0.000096674074       -0.999398429745
        0.031846219588        0.000093666472        0.999492776124
       -0.028917183015       -0.000090952506       -0.999581806684
        0.025903505823        0.000088529200        0.999664443975
       -0.022814800176       -0.000086400900       -0.999739704837
        0.019660618571        0.000084562748        0.999806707782
       -0.016450470309       -0.000083014719       -0.999864678412
        0.013193815477        0.000081759826        0.999912954486
       -0.009900073703       -0.000080792073       -0.999950989806
        0.006578622557        0.000080113811        0.999978357419
       -0.003238815673       -0.000079723635       -0.999994751845
       -0.000110011081        0.000079624504        0.999999990779
        0.003458528848       -0.000079807910       -0.999994016087
        0.006808364937        0.003010362370       -0.999972291559
       -0.010133665934       -0.003037698095        0.999944039037
        0.013430645628        0.003075857200       -0.999905073925
       -0.016689922552       -0.003124873659        0.999855830432
        0.019902091420        0.003184754775       -0.999796861414
       -0.023057670570       -0.003255529462        0.999728835913
        0.026147163034        0.003337224975       -0.999652534031
       -0.029160995064       -0.003429851931        0.999568843293
        0.032089552080        0.003533426174       -0.999478751924
       -0.034923176759       -0.003647947458        0.999383341969
        0.037652154321        0.003773407107       -0.999283781853
       -0.040266761171       -0.003909767860        0.999181315708
        0.042757252318        0.004056977172       -0.999077253425
       -0.045113894992       -0.004214955884        0.998972957905
        0.047326990768        0.004383588712       -0.998869831407
       -0.049386917067       -0.004562720065        0.998769299693
        0.051284158635        0.004752148867       -0.998672795341
       -0.053009343211       -0.004951626896        0.998581739731
        0.054553303420        0.005160837204       -0.998497522704
       -0.055907108191       -0.005379411421        0.998421482735
        0.057062162768        0.005606897849       -0.998354882933
       -0.058010226271       -0.005842781255        0.998298890891
        0.058743538860        0.006086460602       -0.998254552526
       -0.059254880834       -0.006337247518        0.998222769922
        0.059537645367        0.006594368832       -0.998204279235
       -0.059585946885       -0.006856947531        0.998199627932
        0.059394722476        0.007124016554       -0.998209154101
       -0.058959791579       -0.007394504263        0.998232970946
        0.058277987472        0.007667250676       -0.998270949915
       -0.057347244063       -0.007940991305        0.998322710478
        0.056166687141        0.008214383039       -0.998387613689
       -0.054736727429       -0.008485991168        0.998464760832
        0.053059129074        0.008754312616       -0.998552998510
       -0.051137116290       -0.009017773590        0.998650927550
        0.048975398151        0.009274751839       -0.998756922056
       -0.046580245343       -0.009523586665        0.998869151611
        0.043959521697        0.009762596287       -0.998985611591
       -0.041122704723       -0.009990099718        0.999104159267
        0.038080877590        0.010204434170       -0.999222555933
       -0.034846715579       -0.010403979118        0.999338513033
        0.031434430476        0.010587179740       -0.999449742711
       -0.027859712994       -0.010752563798        0.999554009928
        0.024139621505        0.010898775857       -0.999649186144
       -0.020292499929       -0.011024583398        0.999733300940
        0.016337802789        0.011128913997       -0.999804592645
       -0.012295984713       -0.011210857901        0.999861553129
        0.008188281749        0.011269698283       -0.999902968264
       -0.004036565516       -0.011304910717        0.999927949971
       -0.000136898217        0.011316183919       -0.999935960570
        0.004309617913       -0.011303414218        0.999926827333
       -0.008459131117        0.011266719245       -0.999900747144
        0.012563169444       -0.011206422872        0.999858281388
       -0.016599921589        0.011123063487       -0.999800340099
        0.020548170637       -0.011017369566        0.999728158177
       -0.024387549097        0.010890262286       -0.999643261187
        0.028098643889       -0.010742824193        0.999547426559
       -0.031663218621        0.010576296775       -0.999442635939
        0.035064277493       -0.010392042733        0.999331027184
       -0.038286242545        0.010191541660       -0.999214839817
        0.041314986410       -0.009976350648        0.999096363884
       -0.044137950709        0.009748096540       -0.998977885602
        0.046744142999       -0.009508440403        0.998861639396
       -0.049124205639        0.009259067028       -0.998749759498
        0.051270368108       -0.009001654093        0.998644240747
       -0.053176477228        0.008737862616       -0.998546900264
        0.054837902259       -0.008469311240        0.998459350822
       -0.056251543847        0.008197568560       -0.998382974456
        0.057415703175       -0.007924134640        0.998318909527
       -0.058330076627        0.007650436566       -0.998268036642
        0.058995600928       -0.007377815513        0.998230978737
       -0.059414439157        0.007107526271       -0.998208098289
        0.059589805866       -0.006840724333        0.998199508880
       -0.059525958070        0.006578475157       -0.998205081123
        0.059228002546       -0.006321739718        0.998224463396
       -0.058701893923        0.006071385727       -0.998257094102
        0.057954256154       -0.005828185187        0.998302227009
       -0.056992371328        0.005592818358       -0.998358948472
        0.055824018988       -0.005365877406        0.998426204716
       -0.054457470724        0.005147882957       -0.998502820819
        0.052901340907       -0.004939267073        0.998587528347
       -0.051164586742        0.004740409577       -0.998678984249
        0.049256379667       -0.004551610344        0.998775796616
       -0.047186110846        0.004373122975       -0.998876542291
        0.044963298407       -0.004205143779        0.998979788866
       -0.042597581953        0.004047823566       -0.999084111142
        0.040098643994       -0.003901271607        0.999188109832
       -0.037476237318        0.003765575030       -0.999290424292
        0.034740088696       -0.003640781603        0.999389749270
       -0.031899944538        0.003526921861       -0.999484844488
        0.028965494792       -0.003424008529        0.999574547634
       -0.025946406505        0.003332038148       -0.999657782199
        0.022852284437       -0.003251002331        0.999733566547
       -0.019692696496        0.003180879171       -0.999801020060
        0.016477152901       -0.003121647358        0.999859369487
       -0.013215111056        0.003073283991       -0.999907953646
        0.009915986978       -0.003035767318        0.999946227214
       -0.006589155979        0.003009075865       -0.999973763899
        0.003243982942       -0.002993195678        0.999990258630
        0.000110216244        0.002988120097       -0.999995529485
       -0.003464111039       -0.002993837199        0.999989518382
       -0.006842354417       -0.006092202767        0.999958032745
        0.010184364296        0.006147635891       -0.999929240145
       -0.013498084066       -0.006225017171        0.999889519341
        0.016774128716        0.006324381576       -0.999839302490
       -0.020003080122       -0.006445784210        0.999779139936
        0.023175481396        0.006589272846       -0.999709697135
       -0.026281805764       -0.006754889303        0.999631751275
        0.029312486791        0.006942681590       -0.999546185671
       -0.032257887242       -0.007152675193        0.999453984908
        0.035108323845        0.007384871030       -0.999356227417
       -0.037854068948       -0.007639249597        0.999254077465
        0.040485354884        0.007915757707       -0.999148776119
       -0.042992395893       -0.008214281920        0.999041630498
        0.045365419553        0.008534668668       -0.998934000893
       -0.047594665849       -0.008876684141        0.998827288505
        0.049670456140        0.009240023316       -0.998722918409
       -0.051583187979       -0.009624291951        0.998622324867
        0.053323409547        0.010028972347       -0.998526931889
       -0.054881855495       -0.010453452295        0.998438133923
        0.056249499149        0.010896966090       -0.998357275716
       -0.057417617159       -0.011358625013        0.998285629906
        0.058377869381        0.011837378397       -0.998224373996
       -0.059122367347       -0.012332011574        0.998174567483
        0.059643741972        0.012841140123       -0.998137129439
       -0.059935266342       -0.013363186405        0.998112813813
        0.059990913211        0.013896388852       -0.998102189512
       -0.059805455530       -0.014438775225        0.998105620292
        0.059374586952        0.014988187168       -0.998123245231
       -0.058694995403       -0.015542250923        0.998154965900
        0.057764478791        0.016098420661       -0.998200433702
       -0.056582030940       -0.016653950061        0.998259044398
        0.055147948754        0.017205934178       -0.998329935230
       -0.053463901233       -0.017751308904        0.998411990261
        0.051533018625        0.018286875434       -0.998503849856
       -0.049359950094       -0.018809330913        0.998603927690
        0.046950930738        0.019315290065       -0.998710433345
       -0.044313814897       -0.019801329878        0.998821402026
        0.041458088896        0.020264020818       -0.998934730763
       -0.038394896320       -0.020699974955        0.999048218543
        0.035136988962        0.021105886787       -0.999159613650
       -0.031698697555       -0.021478580439        0.999266662686
        0.028095858116        0.021815059261       -0.999367162732
       -0.024345718121       -0.022112544154        0.999459014367
        0.020466823300        0.022368530878       -0.999540273311
       -0.016478882573       -0.022580817640        0.999609200190
        0.012402599269        0.022747556859       -0.999664305749
       -0.008259514653       -0.022867273508        0.999704390417
        0.004071784379        0.022938904915       -0.999728576771
        0.000137992562       -0.022961806703        0.999736333435
       -0.004347025779        0.022935776826       -0.999727489623
        0.008532511836       -0.022861044951        0.999702240102
       -0.012671892312        0.022738284895       -0.999661139359
        0.016743028347       -0.022568584796        0.999605087013
       -0.020724444084        0.022353446203       -0.999535302458
        0.024595482479       -0.022094738861        0.999453292934
       -0.028336517720        0.021794687252       -0.999360812405
        0.031929074214       -0.021455812380        0.999259817232
       -0.035356004531        0.021080912190       -0.999152414842
        0.038601559099       -0.020672990527        0.999040813530
       -0.041651519498        0.020235240224       -0.998927267611
        0.044493224458       -0.019770965462        0.998814027686
       -0.047115655606        0.019283565886       -0.998703288812
        0.049509417662       -0.018776464305        0.998597146977
       -0.051666774512        0.018253089370       -0.998497555901
        0.053581589962       -0.017716814725        0.998406293897
       -0.055249321947        0.017170943998       -0.998324932628
        0.056666932054       -0.016618661902        0.998254816612
       -0.057832850259        0.016063026563       -0.998197044981
        0.058746861149       -0.015506933022        0.998152463972
       -0.059410060471        0.014953109916       -0.998121660530
        0.059824714736       -0.014404099821        0.998104967133
       -0.059994216200        0.013862255526       -0.998102465629
        0.059922926566       -0.013329726276        0.998114002141
       -0.059616134877        0.012808471539       -0.998139198468
        0.059079905869       -0.012300237658        0.998177473637
       -0.058321028819        0.011806593148       -0.998228061094
        0.057346891363       -0.011328908090        0.998290032953
       -0.056165426052        0.010868389253       -0.998362320519
        0.054784994135       -0.010426069007        0.998443739778
       -0.053214349496        0.010002841464       -0.998533012058
        0.051462521114       -0.009599444478        0.998628789684
       -0.049538803252        0.009216503613       -0.998729674654
        0.047452655826       -0.008854509576        0.998834242062
       -0.045213674827        0.008513860937       -0.998941058211
        0.042831563884       -0.008194858057        0.999048698231
       -0.040316072209        0.007897726395       -0.999155763752
        0.037676977107       -0.007622617532        0.999260897413
       -0.034924072968        0.007369637964       -0.999362795767
        0.032067103033       -0.007138840590        0.999460223250
       -0.029115814600        0.006930250771       -0.999552020139
        0.026079874529       -0.006743855106        0.999637114438
       -0.022968924653        0.006579629292       -0.999714527742
        0.019792525718       -0.006437531162        0.999783383598
       -0.016560193660        0.006317511203       -0.999842912181
        0.013281388620       -0.006219526517        0.999892455320
       -0.009965528522        0.006143521770       -0.999931470343
        0.006621986900       -0.006089462723        0.999959533048
       -0.003260097385        0.006057313903       -0.999976340077
       -0.000110794399       -0.006047055886        0.999981710253
        0.003481381290        0.006058684601       -0.999975585865
        0.006899358882        0.009156197253       -0.999934279290
       -0.010269437104       -0.009239727934        0.999904578492
        0.013611251721        0.009356324290       -0.999863587207
       -0.016915437276       -0.009506054023        0.999811733737
        0.020172576240        0.009688991284       -0.999749563949
       -0.023373213068       -0.009905214611        0.999677737891
        0.026507816348        0.010154806598       -0.999597026594
       -0.029566793212       -0.010437829743        0.999508307344
        0.032540493103        0.010754335248       -0.999412557747
       -0.035419188527       -0.011104348036        0.999310849805
        0.038193111712        0.011487840506       -0.999204341333
       -0.040852437358       -0.011904732265        0.999094267680
        0.043387323741        0.012354882200       -0.998981930279
       -0.045787900859       -0.012838056949        0.998868686279
        0.048044342995        0.013353928776       -0.998755932995
       -0.050146827340       -0.013902046898        0.998645096518
        0.052085653312        0.014481821530       -0.998537611492
       -0.053851214044       -0.015092510175        0.998434906683
        0.055434080418        0.015733179561       -0.998338384411
       -0.056825061312       -0.016402714691        0.998249399378
        0.058015243406        0.017099772569       -0.998169238812
       -0.058996090653       -0.017822786788        0.998099098065
        0.059759488718        0.018569941043       -0.998040059716
       -0.060297866495       -0.019339152531        0.997993068350
        0.060604243129        0.020128058584       -0.997958910463
       -0.060672357338       -0.020933996879        0.997938190886
        0.060496741018        0.021754010617       -0.997931313943
       -0.060072838875       -0.022584829510        0.997938464789
        0.059397098271        0.023422890546       -0.997959594831
       -0.058467086610       -0.024264325935        0.997994409939
        0.057281586618        0.025104997377       -0.998042363300
       -0.055840686173       -0.025940497032        0.998102654230
        0.054145892526        0.026766181129       -0.998174230218
       -0.052200177825       -0.027577201535        0.998255798576
        0.050008095111        0.028368540407       -0.998345840047
       -0.047575807437       -0.029135058180        0.998442632769
        0.044911140047        0.029871549713       -0.998544280449
       -0.042023626498       -0.030572798584        0.998648746458
        0.038924474836        0.031233648406       -0.998753895845
       -0.035626583916       -0.031849063744        0.998857539220
        0.032144477255        0.032414208467       -0.998957482414
       -0.028494239593       -0.032924508333        0.999051577778
        0.024693429495        0.033375733071       -0.999137775776
       -0.020760948433       -0.033764052297        0.999214177138
        0.016716912737        0.034086113141       -0.999279080998
       -0.012582483051       -0.034339085372        0.999331030408
        0.008379674626        0.034520725701       -0.999368851101
       -0.004131170741       -0.034629401449        0.999391683968
       -0.000139912368        0.034664136593       -0.999399008434
        0.004410224904       -0.034624613116        0.999390657392
       -0.008656439898        0.034511192976       -0.999366821346
        0.012855450076       -0.034324894770        0.999328043739
       -0.016984620442        0.034067391714       -0.999275205081
        0.021021976380       -0.033740966674        0.999209499393
       -0.024946427067        0.033348486240       -0.999132400757
        0.028737927550       -0.032893334801        0.999045624607
       -0.032377662815        0.032379371946       -0.998951081497
        0.035848163036       -0.031810850093        0.998850829215
       -0.039133451315        0.031192366860       -0.998747019639
        0.042219095771       -0.030528767505        0.998641848866
       -0.045092327343        0.029825104180       -0.998537503139
        0.047742020966       -0.029086531408        0.998436113692
       -0.050158783328        0.028318274144       -0.998339707617
        0.052334877045       -0.027525528066        0.998250172026
       -0.054264259290        0.026713432474       -0.998169215459
        0.055942478991       -0.025886988946        0.998098343275
       -0.057366659222        0.025051040026       -0.998038832813
        0.058535392013       -0.024210208657        0.997991720246
       -0.059448679381        0.023368889446       -0.997957789451
        0.060107815040       -0.022531202233        0.997937570942
       -0.060515317456        0.021700994864       -0.997931341914
        0.060674798290       -0.020881811890        0.997939135812
       -0.060590883510        0.020076904256       -0.997960752109
        0.060269090904       -0.019289206630        0.997995773132
       -0.059715738256        0.018521365798       -0.998043581019
        0.058937839468       -0.017775719083        0.998103378859
       -0.057943012837        0.017054337058       -0.998174211674
        0.056739396409       -0.016359017224        0.998254989194
       -0.055335555906        0.015691313195       -0.998344509146
        0.053740422341       -0.015052547298        0.998441479420
       -0.051963209667        0.014443829487       -0.998544541135
        0.050013358033       -0.013866072495        0.998652289865
       -0.047900471334        0.013320014078       -0.998763296317
        0.045634287229       -0.012806234092        0.998876124551
       -0.043224592096        0.012325169013       -0.998989351718
        0.040681248158       -0.011877146814        0.999101581138
       -0.038014104911        0.011462391574       -0.999211459806
        0.035233007760       -0.011081039632        0.999317690089
       -0.032347785837        0.010733174335       -0.999419041103
        0.029368196591       -0.010418804431        0.999514360849
       -0.026303967281        0.010137917868       -0.999602582993
        0.023164738225       -0.009890456844        0.999682736555
       -0.019960106099        0.009676357638       -0.999753950864
        0.016699590018       -0.009495538712        0.999815462192
       -0.013392652889        0.009347921704       -0.999866617709
        0.010048695208       -0.009233429095        0.999906879420
       -0.006677091697        0.009152001996       -0.999935826594
        0.003287176196       -0.009103586519        0.999953158496
        0.000111744575        0.009088147677       -0.999958695689
       -0.003510357382       -0.009105682935        0.999952380831
       -0.006979383813       -0.012193292044        0.999901301045
        0.010388868868        0.012304917005       -0.999870321802
       -0.013770139125       -0.012460730775        0.999827541858
        0.017113850077        0.012660829385       -0.999773384090
       -0.020410599672       -0.012905317686        0.999708387579
        0.023650907211        0.013194315886       -0.999633205039
       -0.026825250655       -0.013527937753        0.999548598532
        0.029924013218        0.013906291402       -0.999455435971
       -0.032937503902       -0.014329459011        0.999354685505
        0.035855957247        0.014797482038       -0.999247409231
       -0.038669536545       -0.015310352128        0.999134755707
        0.041368346403        0.015867987821       -0.999017951229
       -0.043942446562       -0.016470215015        0.998898289821
        0.046381873562        0.017116744807       -0.998777121710
       -0.048676635291       -0.017807166139        0.998655841625
        0.050816801755        0.018540902011       -0.998535871971
       -0.052792453627       -0.019317191180        0.998418651150
        0.054593804219        0.020135065896       -0.998305612356
       -0.056211203613       -0.020993316966        0.998198167315
        0.057635204596        0.021890469014       -0.998097685879
       -0.058856644349       -0.022824762975        0.998005473738
        0.059866692128        0.023794125046       -0.997922751914
       -0.060656943301       -0.024796148501        0.997850633236
        0.061219503672        0.025828063754       -0.997790099917
       -0.061547062089       -0.026886724761        0.997741982268
        0.061633008667        0.027968587887       -0.997706936096
       -0.061471536806       -0.029069699779        0.997685422725
        0.061057726325        0.030185687934       -0.997677692594
       -0.060387698029       -0.031311775686        0.997683766847
        0.059458676947        0.032442777412       -0.997703428845
       -0.058269137820       -0.033573126580        0.997736214011
        0.056818888869        0.034696893337       -0.997781408656
       -0.055109170134       -0.035807823235        0.997838052573
        0.053142762443        0.036899373705       -0.997904946886
       -0.050924051094       -0.037964765787        0.997980669943
        0.048459096229        0.038997057323       -0.998063597930
       -0.045755699173       -0.039989198756        0.998151932311
        0.042823416246        0.040934131314       -0.998243733722
       -0.039673574359       -0.041824859159        0.998336961478